ITEM: TIMESTEP
0
ITEM: NUMBER OF ATOMS
32768
ITEM: BOX BOUNDS pp pp pp
0 181.818
0 181.818
0 181.818
ITEM: ATOMS id type x y z Color Color Color radius Transparency
0 1 117.459 43.338 0 0.882353 0.647059 0 0.417304 0.15
1 1 64.059 113.781 0 0.882353 0.647059 0 0.417304 0.15
2 1 62.5976 54.0217 0 0.882353 0.647059 0 0.417304 0.15
3 1 114.311 39.8888 0 0.882353 0.647059 0 0.417304 0.15
4 1 162.863 60.7037 0 0.882353 0.647059 0 0.417304 0.15
5 1 109.167 99.9009 0 0.254902 0.411765 0.882353 0.584225 0.15
6 1 25.0459 96.3543 0 0.254902 0.411765 0.882353 0.584225 0.15
7 1 138.317 5.10965 0 0 0 0 0.584225 0.15
8 1 171.058 138.43 0 0 0 0 0.584225 0.15
9 1 97.3577 156.044 0 0.882353 0.647059 0 0.417304 0.15
10 1 6.67732 44.0233 0 0 0 0 0.584225 0.15
11 1 115.902 176.37 0 0 0 0 0.584225 0.15
12 1 112.797 179.604 0 0 0 0 0.584225 0.15
13 1 160.331 86.3575 0 0.882353 0.647059 0 0.417304 0.15
14 1 98.9349 13.8015 0 0.882353 0.647059 0 0.417304 0.15
15 1 99.1043 76.643 0 0.254902 0.411765 0.882353 0.584225 0.15
16 1 51.1261 111.188 0 0.254902 0.411765 0.882353 0.584225 0.15
17 1 34.7962 71.4805 0 0.882353 0.647059 0 0.417304 0.15
18 1 30.7254 77.2015 0 0.254902 0.411765 0.882353 0.584225 0.15
19 1 171.359 17.2757 0 0 0 0 0.417304 0.15
20 1 44.2034 55.0315 0 0.882353 0.647059 0 0.417304 0.15
21 1 2.48055 77.0728 0 0 0 0 0.584225 0.15
22 1 166.982 73.5422 0 0.254902 0.411765 0.882353 0.584225 0.15
23 1 172.688 8.45466 0 0 0 0 0.584225 0.15
24 1 36.7913 168.8 0 0 0 0 0.584225 0.15
25 1 65.7549 15.7959 0 0.254902 0.411765 0.882353 0.584225 0.15
26 1 73.1955 100.019 0 0.254902 0.411765 0.882353 0.584225 0.15
27 1 164.766 54.8473 0 0.882353 0.647059 0 0.417304 0.15
28 1 79.718 174.188 0 0.882353 0.647059 0 0.417304 0.15
29 1 66.2335 93.5896 0 0.882353 0.647059 0 0.417304 0.15
30 1 42.5902 165.807 0 0 0 0 0.417304 0.15
31 1 94.6889 124.812 0 0.882353 0.647059 0 0.417304 0.15
32 1 37.715 42.8838 0 0.254902 0.411765 0.882353 0.584225 0.15
33 1 92.3855 73.3712 0 0.882353 0.647059 0 0.417304 0.15
34 1 24.1398 51.7842 0 0.254902 0.411765 0.882353 0.584225 0.15
35 1 46.1785 98.1532 0 0.254902 0.411765 0.882353 0.584225 0.15
36 1 26.6217 47.1375 0 0.882353 0.647059 0 0.417304 0.15
37 1 134.511 129.685 0 0.254902 0.411765 0.882353 0.584225 0.15
38 1 119.049 181.256 0 0 0 0 0.584225 0.15
39 1 91.0767 111.747 0 0.882353 0.647059 0 0.417304 0.15
40 1 102.76 129.798 0 0.254902 0.411765 0.882353 0.584225 0.15
41 1 14.9045 117.533 0 0.254902 0.411765 0.882353 0.584225 0.15
42 1 25.4341 49.3598 0 0.882353 0.647059 0 0.417304 0.15
43 1 152.215 140.944 0 0.254902 0.411765 0.882353 0.584225 0.15
44 1 121.226 170.551 0 0.882353 0.647059 0 0.417304 0.15
45 1 181.636 149.644 0 0 0 0 0.584225 0.15
46 1 156.725 172.829 0 0 0 0 0.584225 0.15
47 1 24.3331 159.826 0 0 0 0 0.584225 0.15
48 1 89.8016 16.0644 0 0.254902 0.411765 0.882353 0.584225 0.15
49 1 179.631 110.55 0 0 0 0 0.417304 0.15
50 1 0.864678 170.029 0 0 0 0 0.584225 0.15
51 1 72.0719 164.601 0 0.254902 0.411765 0.882353 0.584225 0.15
52 1 10.9524 133.632 0 0 0 0 0.417304 0.15
53 1 46.5122 109.833 0 0.882353 0.647059 0 0.417304 0.15
54 1 8.66411 87.4957 0 0.882353 0.647059 0 0.417304 0.15
55 1 143.176 154.764 0 0.254902 0.411765 0.882353 0.584225 0.15
56 1 8.9038 46.481 0 0 0 0 0.584225 0.15
57 1 179.804 123.3 0 0 0 0 0.417304 0.15
58 1 60.6427 27.4513 0 0.254902 0.411765 0.882353 0.584225 0.15
59 1 42.7278 87.7634 0 0.254902 0.411765 0.882353 0.584225 0.15
60 1 93.4327 26.2726 0 0.882353 0.647059 0 0.417304 0.15
61 1 181.649 18.8725 0 0 0 0 0.417304 0.15
62 1 90.1321 132.471 0 0.254902 0.411765 0.882353 0.584225 0.15
63 1 129.348 60.8215 0 0.254902 0.411765 0.882353 0.584225 0.15
64 1 85.6852 54.2091 0 0.254902 0.411765 0.882353 0.584225 0.15
65 1 114.18 181.052 0 0 0 0 0.584225 0.15
66 1 94.433 145.89 0 0.254902 0.411765 0.882353 0.584225 0.15
67 1 102.597 128.762 0 0.882353 0.647059 0 0.417304 0.15
68 1 15.0422 51.4596 0 0.254902 0.411765 0.882353 0.584225 0.15
69 1 67.6949 79.9798 0 0.882353 0.647059 0 0.417304 0.15
70 1 74.1189 149.914 0 0.882353 0.647059 0 0.417304 0.15
71 1 48.9169 71.7148 0 0.882353 0.647059 0 0.417304 0.15
72 1 67.0001 152.528 0 0.254902 0.411765 0.882353 0.584225 0.15
73 1 161.194 179.129 0 0 0 0 0.417304 0.15
74 1 95.7782 40.8495 0 0.882353 0.647059 0 0.417304 0.15
75 1 84.5231 101.663 0 0.254902 0.411765 0.882353 0.584225 0.15
76 1 113.508 178.605 0 0 0 0 0.584225 0.15
77 1 154.716 159.053 0 0 0 0 0.584225 0.15
78 1 18.7397 8.6949 0 0 0 0 0.417304 0.15
79 1 76.6719 131.423 0 0.254902 0.411765 0.882353 0.584225 0.15
80 1 167.314 147.386 0 0 0 0 0.417304 0.15
81 1 172.44 159.743 0 0 0 0 0.417304 0.15
82 1 75.6214 45.2718 0 0.254902 0.411765 0.882353 0.584225 0.15
83 1 27.2323 148.942 0 0.882353 0.647059 0 0.417304 0.15
84 1 122.965 17.8976 0 0.254902 0.411765 0.882353 0.584225 0.15
85 1 131.822 35.3911 0 0.254902 0.411765 0.882353 0.584225 0.15
86 1 39.0417 50.8974 0 0.882353 0.647059 0 0.417304 0.15
87 1 45.3087 160.966 0 0.882353 0.647059 0 0.417304 0.15
88 1 24.8526 164.002 0 0 0 0 0.417304 0.15
89 1 14.2944 157.487 0 0 0 0 0.417304 0.15
90 1 155.703 26.4845 0 0 0 0 0.584225 0.15
91 1 122.695 110.407 0 0.254902 0.411765 0.882353 0.584225 0.15
92 1 38.9387 135.791 0 0.882353 0.647059 0 0.417304 0.15
93 1 146.563 133.838 0 0.882353 0.647059 0 0.417304 0.15
94 1 160.256 5.75894 0 0 0 0 0.417304 0.15
95 1 71.4498 69.4208 0 0.882353 0.647059 0 0.417304 0.15
96 1 4.25656 122.91 0 0 0 0 0.584225 0.15
97 1 19.3152 46.1015 0 0.882353 0.647059 0 0.417304 0.15
98 1 146.337 141.593 0 0.882353 0.647059 0 0.417304 0.15
99 1 118.636 129.576 0 0.254902 0.411765 0.882353 0.584225 0.15
100 1 10.1892 122.653 0 0.882353 0.647059 0 0.417304 0.15
101 1 109.045 88.9258 0 0.254902 0.411765 0.882353 0.584225 0.15
102 1 99.3278 166.862 0 0.254902 0.411765 0.882353 0.584225 0.15
103 1 28.1375 101.599 0 0.254902 0.411765 0.882353 0.584225 0.15
104 1 128.926 3.7504 0 0 0 0 0.584225 0.15
105 1 172.225 78.5711 0 0.254902 0.411765 0.882353 0.584225 0.15
106 1 32.8095 52.6526 0 0.254902 0.411765 0.882353 0.584225 0.15
107 1 79.7783 62.3498 0 0.882353 0.647059 0 0.417304 0.15
108 1 87.6565 43.9419 0 0.882353 0.647059 0 0.417304 0.15
109 1 157.642 137.508 0 0.882353 0.647059 0 0.417304 0.15
110 1 62.6434 108.381 0 0.254902 0.411765 0.882353 0.584225 0.15
111 1 45.5619 46.8509 0 0.882353 0.647059 0 0.417304 0.15
112 1 6.71751 111.405 0 0.882353 0.647059 0 0.417304 0.15
113 1 11.7321 107.775 0 0.882353 0.647059 0 0.417304 0.15
114 1 23.6631 87.4053 0 0.254902 0.411765 0.882353 0.584225 0.15
115 1 22.0755 97.6831 0 0.254902 0.411765 0.882353 0.584225 0.15
116 1 74.7973 77.0508 0 0.882353 0.647059 0 0.417304 0.15
117 1 105.32 95.5971 0 0.882353 0.647059 0 0.417304 0.15
118 1 96.0239 101.98 0 0.882353 0.647059 0 0.417304 0.15
119 1 181.539 19.6968 0 0 0 0 0.417304 0.15
120 1 91.8059 140.787 0 0.882353 0.647059 0 0.417304 0.15
121 1 19.5473 172.064 0 0 0 0 0.584225 0.15
122 1 81.5377 85.9693 0 0.254902 0.411765 0.882353 0.584225 0.15
123 1 48.9381 127.333 0 0.254902 0.411765 0.882353 0.584225 0.15
124 1 21.9821 170.597 0 0 0 0 0.584225 0.15
125 1 142.474 117.613 0 0.254902 0.411765 0.882353 0.584225 0.15
126 1 92.794 122.023 0 0.254902 0.411765 0.882353 0.584225 0.15
127 1 178.031 86.7025 0 0.882353 0.647059 0 0.417304 0.15
128 1 111.531 5.84488 0 0.882353 0.647059 0 0.417304 0.15
129 1 38.913 86.0499 0 0.882353 0.647059 0 0.417304 0.15
130 1 87.6035 122.39 0 0.254902 0.411765 0.882353 0.584225 0.15
131 1 36.4018 39.802 0 0.882353 0.647059 0 0.417304 0.15
132 1 51.7814 141.556 0 0.882353 0.647059 0 0.417304 0.15
133 1 47.5506 44.3332 0 0.882353 0.647059 0 0.417304 0.15
134 1 38.318 31.3829 0 0.882353 0.647059 0 0.417304 0.15
135 1 71.4497 92.9668 0 0.254902 0.411765 0.882353 0.584225 0.15
136 1 175.25 161.23 0 0 0 0 0.417304 0.15
137 1 105.512 131.469 0 0.882353 0.647059 0 0.417304 0.15
138 1 84.0672 130.686 0 0.882353 0.647059 0 0.417304 0.15
139 1 53.0217 38.3127 0 0.882353 0.647059 0 0.417304 0.15
140 1 15.5351 47.2668 0 0.882353 0.647059 0 0.417304 0.15
141 1 28.6772 63.1883 0 0.254902 0.411765 0.882353 0.584225 0.15
142 1 166.358 117.97 0 0.882353 0.647059 0 0.417304 0.15
143 1 102.805 66.4289 0 0.882353 0.647059 0 0.417304 0.15
144 1 40.6889 92.1223 0 0.254902 0.411765 0.882353 0.584225 0.15
145 1 42.9689 89.9636 0 0.254902 0.411765 0.882353 0.584225 0.15
146 1 154.386 65.1233 0 0.254902 0.411765 0.882353 0.584225 0.15
147 1 103.614 15.9518 0 0.254902 0.411765 0.882353 0.584225 0.15
148 1 159.158 149.367 0 0 0 0 0.584225 0.15
149 1 21.8486 176.135 0 0 0 0 0.584225 0.15
150 1 101.588 53.3979 0 0.254902 0.411765 0.882353 0.584225 0.15
151 1 100.924 100.091 0 0.882353 0.647059 0 0.417304 0.15
152 1 28.4498 111.041 0 0.882353 0.647059 0 0.417304 0.15
153 1 7.79769 107.061 0 0.254902 0.411765 0.882353 0.584225 0.15
154 1 56.3481 88.2523 0 0.254902 0.411765 0.882353 0.584225 0.15
155 1 59.9232 14.1367 0 0.254902 0.411765 0.882353 0.584225 0.15
156 1 133.337 155.99 0 0.882353 0.647059 0 0.417304 0.15
157 1 130.151 18.859 0 0.254902 0.411765 0.882353 0.584225 0.15
158 1 8.26442 10.4677 0 0 0 0 0.417304 0.15
159 1 46.2376 130.579 0 0.882353 0.647059 0 0.417304 0.15
160 1 74.6002 109.038 0 0.882353 0.647059 0 0.417304 0.15
161 1 101.101 71.0492 0 0.882353 0.647059 0 0.417304 0.15
162 1 34.0116 77.2827 0 0.882353 0.647059 0 0.417304 0.15
163 1 168.587 133.479 0 0 0 0 0.417304 0.15
164 1 71.2451 23.1974 0 0.254902 0.411765 0.882353 0.584225 0.15
165 1 14.6818 132.103 0 0.254902 0.411765 0.882353 0.584225 0.15
166 1 175.528 35.4744 0 0 0 0 0.584225 0.15
167 1 111.364 167.993 0 0.882353 0.647059 0 0.417304 0.15
168 1 1.23986 89.0596 0 0 0 0 0.417304 0.15
169 1 0.439069 137.752 0 0 0 0 0.417304 0.15
170 1 168.462 143.983 0 0 0 0 0.584225 0.15
171 1 99.3709 82.8373 0 0.254902 0.411765 0.882353 0.584225 0.15
172 1 26.0655 181.204 0 0 0 0 0.584225 0.15
173 1 176.95 76.1747 0 0.254902 0.411765 0.882353 0.584225 0.15
174 1 52.2907 159.334 0 0.254902 0.411765 0.882353 0.584225 0.15
175 1 175.412 152.945 0 0 0 0 0.417304 0.15
176 1 161.423 131.441 0 0.882353 0.647059 0 0.417304 0.15
177 1 35.9355 163.183 0 0 0 0 0.417304 0.15
178 1 135.08 143.085 0 0.882353 0.647059 0 0.417304 0.15
179 1 22.3299 107.211 0 0.254902 0.411765 0.882353 0.584225 0.15
180 1 147.87 126.844 0 0.882353 0.647059 0 0.417304 0.15
181 1 40.2711 12.6943 0 0 0 0 0.417304 0.15
182 1 132.979 35.5948 0 0.882353 0.647059 0 0.417304 0.15
183 1 43.683 37.164 0 0.254902 0.411765 0.882353 0.584225 0.15
184 1 16.6444 59.4945 0 0.254902 0.411765 0.882353 0.584225 0.15
185 1 173.158 27.9669 0 0 0 0 0.584225 0.15
186 1 74.2626 102.685 0 0.254902 0.411765 0.882353 0.584225 0.15
187 1 153.989 169.252 0 0 0 0 0.417304 0.15
188 1 20.8545 74.6411 0 0.882353 0.647059 0 0.417304 0.15
189 1 118.521 34.8505 0 0.882353 0.647059 0 0.417304 0.15
190 1 140.86 46.411 0 0.882353 0.647059 0 0.417304 0.15
191 1 14.1894 46.1198 0 0 0 0 0.417304 0.15
192 1 85.7133 15.614 0 0.254902 0.411765 0.882353 0.584225 0.15
193 1 152.96 161.523 0 0 0 0 0.417304 0.15
194 1 127.61 16.8972 0 0.254902 0.411765 0.882353 0.584225 0.15
195 1 87.8623 34.5767 0 0.882353 0.647059 0 0.417304 0.15
196 1 162.7 93.144 0 0.254902 0.411765 0.882353 0.584225 0.15
197 1 115.424 152.39 0 0.254902 0.411765 0.882353 0.584225 0.15
198 1 12.9104 26.2313 0 0 0 0 0.417304 0.15
199 1 7.20057 90.9963 0 0.254902 0.411765 0.882353 0.584225 0.15
200 1 131.227 22.3172 0 0.882353 0.647059 0 0.417304 0.15
201 1 82.7139 47.3227 0 0.254902 0.411765 0.882353 0.584225 0.15
202 1 18.5678 44.8682 0 0.882353 0.647059 0 0.417304 0.15
203 1 158.005 3.01168 0 0 0 0 0.417304 0.15
204 1 74.5469 53.0445 0 0.254902 0.411765 0.882353 0.584225 0.15
205 1 173.334 40.075 0 0 0 0 0.417304 0.15
206 1 121.941 112.406 0 0.254902 0.411765 0.882353 0.584225 0.15
207 1 42.2081 74.7677 0 0.882353 0.647059 0 0.417304 0.15
208 1 124.029 179.523 0 0 0 0 0.584225 0.15
209 1 77.5852 139.667 0 0.882353 0.647059 0 0.417304 0.15
210 1 0.348536 0.429536 0 0 0 0 0.584225 0.15
211 1 26.8562 108.511 0 0.882353 0.647059 0 0.417304 0.15
212 1 150.39 68.0672 0 0.882353 0.647059 0 0.417304 0.15
213 1 98.2405 85.5534 0 0.882353 0.647059 0 0.417304 0.15
214 1 6.54247 56.5078 0 0 0 0 0.584225 0.15
215 1 57.347 35.2624 0 0.882353 0.647059 0 0.417304 0.15
216 1 91.0107 84.9246 0 0.254902 0.411765 0.882353 0.584225 0.15
217 1 130.786 159.4 0 0.254902 0.411765 0.882353 0.584225 0.15
218 1 79.8844 20.0269 0 0.882353 0.647059 0 0.417304 0.15
219 1 53.472 159.687 0 0.254902 0.411765 0.882353 0.584225 0.15
220 1 60.4844 71.8084 0 0.882353 0.647059 0 0.417304 0.15
221 1 39.9388 174.757 0 0 0 0 0.417304 0.15
222 1 95.9305 100.914 0 0.882353 0.647059 0 0.417304 0.15
223 1 177.146 21.6978 0 0 0 0 0.417304 0.15
224 1 141.525 26.1625 0 0.882353 0.647059 0 0.417304 0.15
225 1 120.325 113.412 0 0.882353 0.647059 0 0.417304 0.15
226 1 79.4466 45.8651 0 0.882353 0.647059 0 0.417304 0.15
227 1 78.1768 126.064 0 0.882353 0.647059 0 0.417304 0.15
228 1 173.024 156.68 0 0 0 0 0.584225 0.15
229 1 37.0581 106.352 0 0.254902 0.411765 0.882353 0.584225 0.15
230 1 178.049 132.295 0 0 0 0 0.584225 0.15
231 1 168.551 139.449 0 0 0 0 0.584225 0.15
232 1 163.024 47.7565 0 0.882353 0.647059 0 0.417304 0.15
233 1 1.17663 3.88105 0 0 0 0 0.584225 0.15
234 1 61.9623 68.7888 0 0.254902 0.411765 0.882353 0.584225 0.15
235 1 155.124 110.997 0 0.254902 0.411765 0.882353 0.584225 0.15
236 1 169.367 5.74931 0 0 0 0 0.417304 0.15
237 1 75.739 127.495 0 0.254902 0.411765 0.882353 0.584225 0.15
238 1 116.453 160.162 0 0.254902 0.411765 0.882353 0.584225 0.15
239 1 113.759 127.281 0 0.882353 0.647059 0 0.417304 0.15
240 1 141.446 24.8405 0 0.882353 0.647059 0 0.417304 0.15
241 1 55.0709 99.2271 0 0.254902 0.411765 0.882353 0.584225 0.15
242 1 83.2456 56.3 0 0.254902 0.411765 0.882353 0.584225 0.15
243 1 181.199 114.817 0 0 0 0 0.584225 0.15
244 1 22.8908 169.334 0 0 0 0 0.417304 0.15
245 1 66.1542 143.26 0 0.882353 0.647059 0 0.417304 0.15
246 1 53.8519 4.20823 0 0 0 0 0.584225 0.15
247 1 181.383 125.758 0 0 0 0 0.417304 0.15
248 1 75.3752 42.2012 0 0.882353 0.647059 0 0.417304 0.15
249 1 27.6956 111.691 0 0.882353 0.647059 0 0.417304 0.15
250 1 151.945 85.7098 0 0.254902 0.411765 0.882353 0.584225 0.15
251 1 62.4706 56.1174 0 0.882353 0.647059 0 0.417304 0.15
252 1 149.909 98.9392 0 0.254902 0.411765 0.882353 0.584225 0.15
253 1 62.2833 168.847 0 0.882353 0.647059 0 0.417304 0.15
254 1 171.897 20.955 0 0 0 0 0.584225 0.15
255 1 119.896 27.5203 0 0.882353 0.647059 0 0.417304 0.15
256 1 181.194 56.5565 0 0 0 0 0.584225 0.15
257 1 65.8077 53.3473 0 0.254902 0.411765 0.882353 0.584225 0.15
258 1 179.304 149.542 0 0 0 0 0.584225 0.15
259 1 83.937 21.8364 0 0.882353 0.647059 0 0.417304 0.15
260 1 160.286 163.645 0 0 0 0 0.584225 0.15
261 1 52.338 129.589 0 0.882353 0.647059 0 0.417304 0.15
262 1 148.355 96.3893 0 0.882353 0.647059 0 0.417304 0.15
263 1 169.797 166.168 0 0 0 0 0.584225 0.15
264 1 144.916 54.4874 0 0.254902 0.411765 0.882353 0.584225 0.15
265 1 121.097 117.767 0 0.254902 0.411765 0.882353 0.584225 0.15
266 1 60.2124 64.2809 0 0.882353 0.647059 0 0.417304 0.15
267 1 123.934 97.0763 0 0.882353 0.647059 0 0.417304 0.15
268 1 131.053 51.6874 0 0.254902 0.411765 0.882353 0.584225 0.15
269 1 162.62 31.1361 0 0 0 0 0.584225 0.15
270 1 165.741 151.654 0 0 0 0 0.417304 0.15
271 1 114.292 48.5988 0 0.254902 0.411765 0.882353 0.584225 0.15
272 1 81.6441 87.1499 0 0.254902 0.411765 0.882353 0.584225 0.15
273 1 149.183 156.617 0 0.882353 0.647059 0 0.417304 0.15
274 1 59.1891 164.349 0 0.254902 0.411765 0.882353 0.584225 0.15
275 1 34.9777 116.524 0 0.882353 0.647059 0 0.417304 0.15
276 1 53.0798 95.5077 0 0.882353 0.647059 0 0.417304 0.15
277 1 156.014 139.592 0 0.882353 0.647059 0 0.417304 0.15
278 1 142.892 104.944 0 0.882353 0.647059 0 0.417304 0.15
279 1 20.7556 156.561 0 0 0 0 0.584225 0.15
280 1 132.093 168.949 0 0 0 0 0.417304 0.15
281 1 150.72 50.7666 0 0.882353 0.647059 0 0.417304 0.15
282 1 124.951 151.377 0 0.882353 0.647059 0 0.417304 0.15
283 1 40.1589 94.6414 0 0.254902 0.411765 0.882353 0.584225 0.15
284 1 173.457 44.0298 0 0 0 0 0.584225 0.15
285 1 126.245 151.386 0 0.254902 0.411765 0.882353 0.584225 0.15
286 1 166.665 135.167 0 0.882353 0.647059 0 0.417304 0.15
287 1 122.952 96.6596 0 0.254902 0.411765 0.882353 0.584225 0.15
288 1 83.2404 158.113 0 0.254902 0.411765 0.882353 0.584225 0.15
289 1 119.866 160.431 0 0.882353 0.647059 0 0.417304 0.15
290 1 103.798 172.199 0 0.254902 0.411765 0.882353 0.584225 0.15
291 1 15.545 100.521 0 0.254902 0.411765 0.882353 0.584225 0.15
292 1 38.9861 9.50995 0 0 0 0 0.417304 0.15
293 1 22.9577 162.925 0 0 0 0 0.584225 0.15
294 1 47.6914 162.761 0 0.254902 0.411765 0.882353 0.584225 0.15
295 1 104.377 121.482 0 0.254902 0.411765 0.882353 0.584225 0.15
296 1 24.7671 17.1484 0 0 0 0 0.417304 0.15
297 1 170.544 106.847 0 0.882353 0.647059 0 0.417304 0.15
298 1 10.9671 161.192 0 0 0 0 0.417304 0.15
299 1 10.9693 140.812 0 0 0 0 0.417304 0.15
300 1 133.048 82.6594 0 0.882353 0.647059 0 0.417304 0.15
301 1 69.6055 1.10582 0 0 0 0 0.584225 0.15
302 1 11.9827 58.4202 0 0.254902 0.411765 0.882353 0.584225 0.15
303 1 137.373 68.8053 0 0.882353 0.647059 0 0.417304 0.15
304 1 57.219 23.0317 0 0.254902 0.411765 0.882353 0.584225 0.15
305 1 152.535 14.8298 0 0 0 0 0.417304 0.15
306 1 149.464 41.5873 0 0.254902 0.411765 0.882353 0.584225 0.15
307 1 124.357 20.1812 0 0.254902 0.411765 0.882353 0.584225 0.15
308 1 94.9055 14.6188 0 0.254902 0.411765 0.882353 0.584225 0.15
309 1 90.9662 70.7095 0 0.882353 0.647059 0 0.417304 0.15
310 1 166.195 102.835 0 0.882353 0.647059 0 0.417304 0.15
311 1 149.768 169.112 0 0 0 0 0.417304 0.15
312 1 64.8368 34.836 0 0.882353 0.647059 0 0.417304 0.15
313 1 45.1012 33.3299 0 0.254902 0.411765 0.882353 0.584225 0.15
314 1 162.867 115.038 0 0.254902 0.411765 0.882353 0.584225 0.15
315 1 120.716 88.6009 0 0.882353 0.647059 0 0.417304 0.15
316 1 123.032 11.3525 0 0.882353 0.647059 0 0.417304 0.15
317 1 30.9041 41.6943 0 0.254902 0.411765 0.882353 0.584225 0.15
318 1 81.8488 175.874 0 0.254902 0.411765 0.882353 0.584225 0.15
319 1 152.141 131.762 0 0.254902 0.411765 0.882353 0.584225 0.15
320 1 11.6771 102.024 0 0.254902 0.411765 0.882353 0.584225 0.15
321 1 14.9067 43.7597 0 0 0 0 0.417304 0.15
322 1 100.402 111.049 0 0.254902 0.411765 0.882353 0.584225 0.15
323 1 88.4858 114.276 0 0.254902 0.411765 0.882353 0.584225 0.15
324 1 181.39 154.325 0 0 0 0 0.417304 0.15
325 1 51.5771 26.7001 0 0.882353 0.647059 0 0.417304 0.15
326 1 102.382 138.22 0 0.882353 0.647059 0 0.417304 0.15
327 1 127.244 106.999 0 0.254902 0.411765 0.882353 0.584225 0.15
328 1 181.305 92.505 0 0 0 0 0.584225 0.15
329 1 118.562 119.425 0 0.882353 0.647059 0 0.417304 0.15
330 1 77.2283 120.464 0 0.882353 0.647059 0 0.417304 0.15
331 1 107.591 63.9202 0 0.882353 0.647059 0 0.417304 0.15
332 1 99.5741 144.097 0 0.254902 0.411765 0.882353 0.584225 0.15
333 1 33.9708 143.323 0 0.882353 0.647059 0 0.417304 0.15
334 1 94.5376 130.379 0 0.882353 0.647059 0 0.417304 0.15
335 1 102.009 115.549 0 0.254902 0.411765 0.882353 0.584225 0.15
336 1 158.092 127.711 0 0.882353 0.647059 0 0.417304 0.15
337 1 61.5709 145.194 0 0.254902 0.411765 0.882353 0.584225 0.15
338 1 52.3762 117.608 0 0.254902 0.411765 0.882353 0.584225 0.15
339 1 170.81 90.1726 0 0.882353 0.647059 0 0.417304 0.15
340 1 105.204 5.96456 0 0.254902 0.411765 0.882353 0.584225 0.15
341 1 109.503 84.9752 0 0.254902 0.411765 0.882353 0.584225 0.15
342 1 129.555 179.788 0 0 0 0 0.584225 0.15
343 1 102.758 120.342 0 0.254902 0.411765 0.882353 0.584225 0.15
344 1 173.436 41.0896 0 0 0 0 0.584225 0.15
345 1 87.9464 131.442 0 0.254902 0.411765 0.882353 0.584225 0.15
346 1 50.6892 39.9814 0 0.254902 0.411765 0.882353 0.584225 0.15
347 1 18.0975 155.493 0 0 0 0 0.584225 0.15
348 1 158.842 131.062 0 0.882353 0.647059 0 0.417304 0.15
349 1 160.317 21.195 0 0 0 0 0.584225 0.15
350 1 130.95 7.78092 0 0 0 0 0.417304 0.15
351 1 133.032 2.86523 0 0 0 0 0.417304 0.15
352 1 50.9996 8.93551 0 0 0 0 0.584225 0.15
353 1 62.4137 7.30301 0 0 0 0 0.584225 0.15
354 1 123.01 120.467 0 0.254902 0.411765 0.882353 0.584225 0.15
355 1 170.973 10.804 0 0 0 0 0.417304 0.15
356 1 173.531 142.378 0 0 0 0 0.417304 0.15
357 1 46.5228 30.3444 0 0.254902 0.411765 0.882353 0.584225 0.15
358 1 27.6155 110.404 0 0.254902 0.411765 0.882353 0.584225 0.15
359 1 175.827 27.5037 0 0 0 0 0.584225 0.15
360 1 80.5081 181.049 0 0 0 0 0.584225 0.15
361 1 84.972 67.8873 0 0.882353 0.647059 0 0.417304 0.15
362 1 148.982 123.277 0 0.882353 0.647059 0 0.417304 0.15
363 1 41.5983 163.433 0 0.882353 0.647059 0 0.417304 0.15
364 1 75.7338 171.245 0 0.882353 0.647059 0 0.417304 0.15
365 1 13.2837 37.2709 0 0 0 0 0.417304 0.15
366 1 128.019 64.2083 0 0.254902 0.411765 0.882353 0.584225 0.15
367 1 95.0374 180.821 0 0 0 0 0.417304 0.15
368 1 132.656 28.1474 0 0.882353 0.647059 0 0.417304 0.15
369 1 142.207 168.193 0 0 0 0 0.584225 0.15
370 1 99.0679 178.062 0 0.254902 0.411765 0.882353 0.584225 0.15
371 1 47.2601 160.591 0 0.254902 0.411765 0.882353 0.584225 0.15
372 1 90.6542 148.108 0 0.254902 0.411765 0.882353 0.584225 0.15
373 1 156.312 116.422 0 0.254902 0.411765 0.882353 0.584225 0.15
374 1 79.3379 121.38 0 0.882353 0.647059 0 0.417304 0.15
375 1 20.0465 120.316 0 0.254902 0.411765 0.882353 0.584225 0.15
376 1 146.314 52.863 0 0.882353 0.647059 0 0.417304 0.15
377 1 48.1707 101.503 0 0.882353 0.647059 0 0.417304 0.15
378 1 1.20723 17.8998 0 0 0 0 0.584225 0.15
379 1 166.526 98.966 0 0.882353 0.647059 0 0.417304 0.15
380 1 36.7496 70.842 0 0.882353 0.647059 0 0.417304 0.15
381 1 33.6575 72.4291 0 0.254902 0.411765 0.882353 0.584225 0.15
382 1 81.4928 108.711 0 0.882353 0.647059 0 0.417304 0.15
383 1 95.7993 57.457 0 0.254902 0.411765 0.882353 0.584225 0.15
384 1 130.112 98.6914 0 0.254902 0.411765 0.882353 0.584225 0.15
385 1 136.159 104.512 0 0.882353 0.647059 0 0.417304 0.15
386 1 5.17813 89.08 0 0.254902 0.411765 0.882353 0.584225 0.15
387 1 97.2451 31.8572 0 0.254902 0.411765 0.882353 0.584225 0.15
388 1 110.379 99.8347 0 0.882353 0.647059 0 0.417304 0.15
389 1 90.3145 57.4835 0 0.254902 0.411765 0.882353 0.584225 0.15
390 1 173.208 160.413 0 0 0 0 0.584225 0.15
391 1 66.0721 169.253 0 0.254902 0.411765 0.882353 0.584225 0.15
392 1 56.312 43.4189 0 0.254902 0.411765 0.882353 0.584225 0.15
393 1 5.38462 137.946 0 0 0 0 0.417304 0.15
394 1 125.58 10.0031 0 0.882353 0.647059 0 0.417304 0.15
395 1 150.688 117.682 0 0.254902 0.411765 0.882353 0.584225 0.15
396 1 74.8623 54.1844 0 0.254902 0.411765 0.882353 0.584225 0.15
397 1 36.7829 160.559 0 0 0 0 0.417304 0.15
398 1 165.794 43.6673 0 0 0 0 0.584225 0.15
399 1 168.388 64.971 0 0.254902 0.411765 0.882353 0.584225 0.15
400 1 56.3749 46.3155 0 0.882353 0.647059 0 0.417304 0.15
401 1 36.9201 61.3727 0 0.882353 0.647059 0 0.417304 0.15
402 1 130.152 81.3332 0 0.254902 0.411765 0.882353 0.584225 0.15
403 1 121.304 68.8166 0 0.254902 0.411765 0.882353 0.584225 0.15
404 1 123.683 99.9294 0 0.882353 0.647059 0 0.417304 0.15
405 1 31.2614 60.3273 0 0.882353 0.647059 0 0.417304 0.15
406 1 140.805 172.453 0 0 0 0 0.584225 0.15
407 1 8.29396 90.4936 0 0.254902 0.411765 0.882353 0.584225 0.15
408 1 64.0914 123.193 0 0.254902 0.411765 0.882353 0.584225 0.15
409 1 134.489 35.8887 0 0.882353 0.647059 0 0.417304 0.15
410 1 180.8 97.3751 0 0 0 0 0.417304 0.15
411 1 138.893 156.269 0 0.882353 0.647059 0 0.417304 0.15
412 1 102.441 149.634 0 0.254902 0.411765 0.882353 0.584225 0.15
413 1 145.771 139.545 0 0.254902 0.411765 0.882353 0.584225 0.15
414 1 101.514 83.0148 0 0.882353 0.647059 0 0.417304 0.15
415 1 84.9605 131.169 0 0.254902 0.411765 0.882353 0.584225 0.15
416 1 45.0069 113.633 0 0.254902 0.411765 0.882353 0.584225 0.15
417 1 40.418 86.8535 0 0.882353 0.647059 0 0.417304 0.15
418 1 116.916 26.6838 0 0.882353 0.647059 0 0.417304 0.15
419 1 109.059 87.8185 0 0.882353 0.647059 0 0.417304 0.15
420 1 147.202 106.511 0 0.882353 0.647059 0 0.417304 0.15
421 1 130.179 63.7608 0 0.254902 0.411765 0.882353 0.584225 0.15
422 1 132.133 14.7548 0 0.882353 0.647059 0 0.417304 0.15
423 1 83.2375 113.889 0 0.882353 0.647059 0 0.417304 0.15
424 1 117.93 42.2719 0 0.254902 0.411765 0.882353 0.584225 0.15
425 1 64.8268 38.5279 0 0.882353 0.647059 0 0.417304 0.15
426 1 174.019 50.9161 0 0 0 0 0.417304 0.15
427 1 26.2164 50.8753 0 0.882353 0.647059 0 0.417304 0.15
428 1 87.2492 93.378 0 0.882353 0.647059 0 0.417304 0.15
429 1 45.5652 27.4062 0 0.882353 0.647059 0 0.417304 0.15
430 1 136.54 8.5658 0 0 0 0 0.417304 0.15
431 1 130.214 9.38465 0 0 0 0 0.584225 0.15
432 1 48.4618 47.1595 0 0.882353 0.647059 0 0.417304 0.15
433 1 118.065 100.46 0 0.254902 0.411765 0.882353 0.584225 0.15
434 1 11.6585 28.0413 0 0 0 0 0.584225 0.15
435 1 56.1962 123.87 0 0.882353 0.647059 0 0.417304 0.15
436 1 174.337 158.967 0 0 0 0 0.417304 0.15
437 1 6.68488 53.9527 0 0 0 0 0.584225 0.15
438 1 85.0902 51.8058 0 0.882353 0.647059 0 0.417304 0.15
439 1 111.728 44.5674 0 0.882353 0.647059 0 0.417304 0.15
440 1 31.4076 147.61 0 0.882353 0.647059 0 0.417304 0.15
441 1 178.712 137.211 0 0 0 0 0.417304 0.15
442 1 140.527 86.8872 0 0.882353 0.647059 0 0.417304 0.15
443 1 173.613 130.323 0 0 0 0 0.417304 0.15
444 1 82.7813 98.553 0 0.254902 0.411765 0.882353 0.584225 0.15
445 1 74.3225 6.38988 0 0.254902 0.411765 0.882353 0.584225 0.15
446 1 79.6525 146.582 0 0.254902 0.411765 0.882353 0.584225 0.15
447 1 136.176 147.21 0 0.254902 0.411765 0.882353 0.584225 0.15
448 1 0.848417 171.22 0 0 0 0 0.584225 0.15
449 1 63.769 140.347 0 0.254902 0.411765 0.882353 0.584225 0.15
450 1 25.4469 53.6338 0 0.882353 0.647059 0 0.417304 0.15
451 1 111.091 64.3024 0 0.254902 0.411765 0.882353 0.584225 0.15
452 1 119.296 84.8553 0 0.254902 0.411765 0.882353 0.584225 0.15
453 1 96.3678 116.85 0 0.254902 0.411765 0.882353 0.584225 0.15
454 1 98.6984 2.84038 0 0 0 0 0.417304 0.15
455 1 115.893 170.494 0 0.882353 0.647059 0 0.417304 0.15
456 1 112.582 46.0085 0 0.882353 0.647059 0 0.417304 0.15
457 1 5.98794 101.867 0 0.882353 0.647059 0 0.417304 0.15
458 1 57.8726 133.783 0 0.254902 0.411765 0.882353 0.584225 0.15
459 1 80.5874 29.0463 0 0.882353 0.647059 0 0.417304 0.15
460 1 115.142 120.596 0 0.254902 0.411765 0.882353 0.584225 0.15
461 1 120.503 25.7085 0 0.254902 0.411765 0.882353 0.584225 0.15
462 1 61.5564 12.4782 0 0.882353 0.647059 0 0.417304 0.15
463 1 35.1563 53.1879 0 0.254902 0.411765 0.882353 0.584225 0.15
464 1 97.7004 154.303 0 0.882353 0.647059 0 0.417304 0.15
465 1 0.0140781 17.8677 0 0 0 0 0.584225 0.15
466 1 72.3054 146.105 0 0.254902 0.411765 0.882353 0.584225 0.15
467 1 107.654 176.116 0 0.254902 0.411765 0.882353 0.584225 0.15
468 1 127.245 8.59343 0 0 0 0 0.584225 0.15
469 1 170.39 65.5586 0 0.882353 0.647059 0 0.417304 0.15
470 1 105.2 18.8392 0 0.882353 0.647059 0 0.417304 0.15
471 1 156.456 88.6567 0 0.254902 0.411765 0.882353 0.584225 0.15
472 1 124.39 15.4289 0 0.254902 0.411765 0.882353 0.584225 0.15
473 1 120.469 134.125 0 0.882353 0.647059 0 0.417304 0.15
474 1 61.8154 73.0355 0 0.254902 0.411765 0.882353 0.584225 0.15
475 1 101.424 34.6185 0 0.882353 0.647059 0 0.417304 0.15
476 1 101.633 22.8547 0 0.254902 0.411765 0.882353 0.584225 0.15
477 1 23.9837 153.357 0 0 0 0 0.584225 0.15
478 1 128.162 13.4653 0 0.882353 0.647059 0 0.417304 0.15
479 1 176.317 50.6005 0 0 0 0 0.417304 0.15
480 1 19.4119 116.746 0 0.254902 0.411765 0.882353 0.584225 0.15
481 1 129.302 12.3702 0 0.882353 0.647059 0 0.417304 0.15
482 1 56.2052 73.6587 0 0.882353 0.647059 0 0.417304 0.15
483 1 9.04065 50.6525 0 0 0 0 0.584225 0.15
484 1 87.6356 82.0559 0 0.254902 0.411765 0.882353 0.584225 0.15
485 1 26.5848 70.593 0 0.254902 0.411765 0.882353 0.584225 0.15
486 1 156.726 168.327 0 0 0 0 0.584225 0.15
487 1 146.102 168.983 0 0 0 0 0.417304 0.15
488 1 117.394 151.267 0 0.882353 0.647059 0 0.417304 0.15
489 1 11.6872 158.462 0 0 0 0 0.584225 0.15
490 1 90.5929 11.5221 0 0.254902 0.411765 0.882353 0.584225 0.15
491 1 114.472 89.2874 0 0.882353 0.647059 0 0.417304 0.15
492 1 5.61949 43.5427 0 0 0 0 0.584225 0.15
493 1 7.22698 68.1694 0 0.254902 0.411765 0.882353 0.584225 0.15
494 1 172.663 76.6235 0 0.882353 0.647059 0 0.417304 0.15
495 1 163.867 156.223 0 0 0 0 0.584225 0.15
496 1 81.0886 97.0716 0 0.254902 0.411765 0.882353 0.584225 0.15
497 1 92.4116 108.224 0 0.882353 0.647059 0 0.417304 0.15
498 1 137.253 49.2606 0 0.254902 0.411765 0.882353 0.584225 0.15
499 1 17.3936 163.977 0 0 0 0 0.584225 0.15
500 1 100.195 4.70693 0 0.882353 0.647059 0 0.417304 0.15
501 1 83.618 38.08 0 0.254902 0.411765 0.882353 0.584225 0.15
502 1 98.9112 65.1952 0 0.882353 0.647059 0 0.417304 0.15
503 1 156.558 83.5986 0 0.882353 0.647059 0 0.417304 0.15
504 1 10.9719 143.202 0 0 0 0 0.417304 0.15
505 1 90.0404 177.478 0 0.254902 0.411765 0.882353 0.584225 0.15
506 1 102.79 146.892 0 0.254902 0.411765 0.882353 0.584225 0.15
507 1 96.7948 15.5219 0 0.882353 0.647059 0 0.417304 0.15
508 1 93.4603 157.7 0 0.882353 0.647059 0 0.417304 0.15
509 1 134.966 58.1557 0 0.882353 0.647059 0 0.417304 0.15
510 1 126.495 180.665 0 0 0 0 0.417304 0.15
511 1 87.4685 0.917453 0 0 0 0 0.584225 0.15
512 1 97.6134 50.6163 0 0.254902 0.411765 0.882353 0.584225 0.15
513 1 61.2772 102.871 0 0.254902 0.411765 0.882353 0.584225 0.15
514 1 24.7647 77.2312 0 0.254902 0.411765 0.882353 0.584225 0.15
515 1 58.4787 44.6553 0 0.882353 0.647059 0 0.417304 0.15
516 1 25.1778 20.6834 0 0 0 0 0.584225 0.15
517 1 53.3844 132.985 0 0.882353 0.647059 0 0.417304 0.15
518 1 146.147 31.0639 0 0.882353 0.647059 0 0.417304 0.15
519 1 112.19 129.584 0 0.882353 0.647059 0 0.417304 0.15
520 1 23.639 23.5859 0 0 0 0 0.584225 0.15
521 1 116.938 177.939 0 0 0 0 0.417304 0.15
522 1 89.3163 90.6886 0 0.254902 0.411765 0.882353 0.584225 0.15
523 1 28.4435 122.455 0 0.254902 0.411765 0.882353 0.584225 0.15
524 1 164.814 175.36 0 0 0 0 0.584225 0.15
525 1 109.581 142.98 0 0.254902 0.411765 0.882353 0.584225 0.15
526 1 37.8388 97.7353 0 0.882353 0.647059 0 0.417304 0.15
527 1 170.166 42.5895 0 0 0 0 0.417304 0.15
528 1 108.256 147.37 0 0.882353 0.647059 0 0.417304 0.15